# vtk DataFile Version 5.1
vtk output
ASCII
DATASET UNSTRUCTURED_GRID
POINTS 2386 double
0 9.9999997733e-10 1e-09 0 0.019999999681 1e-09 0 0.039999999501 1e-09 
0 0.059999999471 1e-09 0 0.07999999941 1e-09 0 0.1199999994 1e-09 
0 0.1399999994 1e-09 0 0.1599999994 1e-09 0 0.17999999939 1e-09 
0 0.19999999939 1e-09 0 0.2199999994 1e-09 0 0.2399999994 1e-09 
0 0.2599999994 1e-09 0 0.2799999994 1e-09 0 0.2999999994 1e-09 
0 0.3199999994 1e-09 0 0.3399999994 1e-09 0 0.37999999953 1e-09 
0 0.3999999994 1e-09 0 0.41999999941 1e-09 0 0.45999999929 1e-09 
0 0.47999999913 1e-09 0 0.80000000087 1e-09 0 0.81999999968 1e-09 
0 0.8399999995 1e-09 0 0.85999999947 1e-09 0 0.8800000006 1e-09 
0 0.8999999994 1e-09 0 0.9199999994 1e-09 0 0.9399999994 1e-09 
0 0.97999999931 1e-09 8.7267256615e-10 1 1e-09 1.0959046101e-09 0.95999999976 1e-09 
1.1034227247e-09 0.10000000022 1e-09 1.1759564642e-09 0.35999999993 1e-09 1.213818053e-09 0.43999999979 1e-09 
0.012645885472 0.83202041333 1e-09 0.012813929699 0.089599259915 1e-09 0.013106980609 0.050956038911 1e-09 
0.01361351932 0.39032010069 1e-09 0.014216064143 0.46645882491 1e-09 0.014641015279 0.014641016151 1e-09 
0.014641016753 0.98535898324 1e-09 0.015351041009 0.95075605869 1e-09 0.015830697962 0.97028879784 1e-09 
0.016231594461 0.81685568167 1e-09 0.016383174196 0.27000955446 1e-09 0.016665568779 0.15000137248 1e-09 
0.016683676837 0.90890716484 1e-09 0.016698214675 0.20944986751 1e-09 0.016909807986 0.45011661079 1e-09 
0.017044530598 0.23020891216 1e-09 0.017111517946 0.29005535492 1e-09 0.017111686585 0.070321778714 1e-09 
0.017139643868 0.86995733171 1e-09 0.017162395352 0.33001037053 1e-09 0.017320465171 0.25000197493 1e-09 
0.017320508226 0.169999999 1e-09 0.017320508539 0.84999999956 1e-09 0.017373617427 0.30981673146 1e-09 
0.017468219546 0.35041088615 1e-09 0.017552872532 0.88906075534 1e-09 0.017596523215 0.18932482839 1e-09 
0.018248609922 0.93041719288 1e-09 0.018283584458 0.13000823992 1e-09 0.018308592355 0.43091288884 1e-09 
0.018423221077 0.032498169161 1e-09 0.018490734803 0.37242383549 1e-09 0.019285868626 0.48116658012 1e-09 
0.01928586943 0.79883341976 1e-09 0.019638268271 0.10764011969 1e-09 0.019981290908 0.40871459818 1e-09 
0.019999999681 0 1e-09 0.020000000705 1 1e-09 0.029496552506 0.86148510795 1e-09 
0.029508623131 0.28013343783 1e-09 0.029559598017 0.088110857685 1e-09 0.029595567268 0.39046206662 1e-09 
0.029617678493 0.96335396896 1e-09 0.029677319846 0.83324638808 1e-09 0.029802356096 0.15999999965 1e-09 
0.030000000491 0.051960251121 1e-09 0.030649725249 0.91665977754 1e-09 0.030773614309 0.016873862099 1e-09 
0.031084971866 0.98096377671 1e-09 0.031496708971 0.4643010192 1e-09 0.032961525224 0.44222025376 1e-09 
0.033025353471 0.94792057959 1e-09 0.033090441585 0.89861795944 1e-09 0.033194887274 0.84916296828 1e-09 
0.033214963738 0.14298171188 1e-09 0.033729079092 0.34018121585 1e-09 0.03393914802 0.32021327022 1e-09 
0.034117992871 0.8138371205 1e-09 0.034190630509 0.21996684497 1e-09 0.034569101869 0.36000003175 1e-09 
0.034637462236 0.24000615436 1e-09 0.034900616269 0.19963951295 1e-09 0.035166084093 0.26241498129 1e-09 
0.035932147665 0.87736857657 1e-09 0.036174270731 0.12269400698 1e-09 0.036203535782 0.29883466473 1e-09 
0.036266067985 0.37572188161 1e-09 0.036659799162 0.176859593 1e-09 0.036692616601 0.42424020321 1e-09 
0.038290506733 0.79535069066 1e-09 0.038290507092 0.48464930822 1e-09 0.038535860426 0.06839383733 1e-09 
0.038574652435 0.92986826326 1e-09 0.039999999393 0 1e-09 0.039999999513 1 1e-09 
0.04015053611 0.034012056912 1e-09 0.041783915263 0.10384709271 1e-09 0.042482753332 0.40534424166 1e-09 
0.044407838218 0.85974321093 1e-09 0.045142885737 0.28051621879 1e-09 0.045561479456 0.9112077004 1e-09 
0.045565121883 0.3498647814 1e-09 0.046113055748 0.9645979751 1e-09 0.046323973655 0.45333041094 1e-09 
0.046667092855 0.15661892058 1e-09 0.047284249121 0.84296280415 1e-09 0.048003143406 0.08510568926 1e-09 
0.048407586124 0.82694329361 1e-09 0.048475218474 0.38713058068 1e-09 0.049034399727 0.33258223383 1e-09 
0.04952831675 0.049478879598 1e-09 0.050000000052 0.98267949135 1e-09 0.050128934366 0.017058668495 1e-09 
0.050397388818 0.43842276672 1e-09 0.050696806885 0.2103949743 1e-09 0.050925152544 0.89207603631 1e-09 
0.051060205391 0.13794695535 1e-09 0.051166157557 0.23010165049 1e-09 0.051591234085 0.80767535724 1e-09 
0.052059826199 0.94451934441 1e-09 0.052133355883 0.24958785948 1e-09 0.052210914683 0.26612190405 1e-09 
0.052356326142 0.36660947741 1e-09 0.053029756363 0.31456729951 1e-09 0.053207783282 0.19038020902 1e-09 
0.054254745262 0.4704530078 1e-09 0.055668476235 0.11873291617 1e-09 0.055959874117 0.41986163974 1e-09 
0.056486765817 0.87305422245 1e-09 0.0565407337 0.065966534601 1e-09 0.056736782286 0.78960259867 1e-09 
0.056736782601 0.49039740145 1e-09 0.058156497578 0.92559308822 1e-09 0.058251121007 0.29594289032 1e-09 
0.059056361039 0.17137851479 1e-09 0.059999999301 0 1e-09 0.060000000585 1 1e-09 
0.06052770384 0.97220160787 1e-09 0.061192494573 0.34767093895 1e-09 0.06130138927 0.099696981299 1e-09 
0.061791383888 0.40095517605 1e-09 0.061952760935 0.033798062306 1e-09 0.062278963143 0.81891505429 1e-09 
0.062502223578 0.85499774879 1e-09 0.062735032778 0.45201976361 1e-09 0.063546509098 0.27763298979 1e-09 
0.063979703103 0.90657868728 1e-09 0.064546899606 0.2207004024 1e-09 0.06465322964 0.15277136326 1e-09 
0.064754264341 0.049360759357 1e-09 0.065711165961 0.95756600044 1e-09 0.066482328165 0.32903720752 1e-09 
0.066493586988 0.83479290918 1e-09 0.067225200079 0.080604372274 1e-09 0.067279319275 0.20457979985 1e-09 
0.067637174865 0.38216533 1e-09 0.068455431488 0.25926197817 1e-09 0.069365753547 0.43435598705 1e-09 
0.069864387531 0.88763627508 1e-09 0.069983194427 0.13388281429 1e-09 0.069999999894 0.016196113978 1e-09 
0.070003548789 0.98322394848 1e-09 0.071371374419 0.23812503375 1e-09 0.07141896077 0.94016388496 1e-09 
0.071760439354 0.31058603502 1e-09 0.072335765473 0.80299935907 1e-09 0.072679235542 0.18599528013 1e-09 
0.073150724345 0.061513713572 1e-09 0.073453462543 0.36313911523 1e-09 0.074031350385 0.47975846431 1e-09 
0.074355707181 0.49832703573 1e-09 0.074355707814 0.78167296393 1e-09 0.074633718679 0.46347725746 1e-09 
0.074937919498 0.11430102354 1e-09 0.075209066497 0.41548432343 1e-09 0.075805118758 0.86877306784 1e-09 
0.076017026857 0.81960966799 1e-09 0.077026070712 0.29201851253 1e-09 0.077355194977 0.92117788368 1e-09 
0.078247855825 0.96964608058 1e-09 0.078335539254 0.043705306661 1e-09 0.07851175529 0.16701540072 1e-09 
0.079227388116 0.34428474429 1e-09 0.079857334153 0.028182103686 1e-09 0.07999999937 0 1e-09 
0.079999999879 0.99999999873 1e-09 0.080194234706 0.21983881529 1e-09 0.080797415806 0.095279919996 1e-09 
0.081051429914 0.39658611502 1e-09 0.081740888736 0.84997185453 1e-09 0.082411992594 0.27282868619 1e-09 
0.082725871667 0.44881345455 1e-09 0.083243771235 0.90222214819 1e-09 0.083594143892 0.14841961108 1e-09 
0.085188785576 0.32524665227 1e-09 0.085359051272 0.95360723731 1e-09 0.086122865187 0.20077043318 1e-09 
0.086721369972 0.07619012952 1e-09 0.08690213506 0.37769621951 1e-09 0.087915818285 0.83125123174 1e-09 
0.087961124027 0.25359365204 1e-09 0.088559759428 0.42996444867 1e-09 0.088619483405 0.12906608879 1e-09 
0.089169412244 0.8833226236 1e-09 0.089567338999 0.015951705867 1e-09 0.089985561586 0.98333148734 1e-09 
0.090513013137 0.30667199959 1e-09 0.090765407182 0.93577727852 1e-09 0.090890359246 0.50832258132 1e-09 
0.090890359581 0.77167741846 1e-09 0.091786014558 0.48927736732 1e-09 0.091988895635 0.18176009712 1e-09 
0.092368808734 0.79065091995 1e-09 0.09263820335 0.057104969872 1e-09 0.092729911165 0.35882745569 1e-09 
0.093006825108 0.46664502178 1e-09 0.093760432 0.23450628519 1e-09 0.094367989614 0.10995291873 1e-09 
0.094464135085 0.41108255681 1e-09 0.094727023417 0.81159160261 1e-09 0.095086238426 0.86445907607 1e-09 
0.095917040352 0.28747163355 1e-09 0.096614801476 0.91682162557 1e-09 0.097207599988 0.16324814043 1e-09 
0.097404040087 0.03534346135 1e-09 0.098230408146 0.34008595663 1e-09 0.098423546805 0.96771432491 1e-09 
0.099666303823 0.21544387369 1e-09 0.099999999933 0.99999999869 1e-09 0.10000000002 1.0571797986e-09 1e-09 
0.10025455901 0.39227463533 1e-09 0.10029040266 0.090866199061 1e-09 0.10128510505 0.8456731044 1e-09 
0.10135730656 0.2681895134 1e-09 0.10181151575 0.4444846319 1e-09 0.10247384588 0.14391277318 1e-09 
0.10254935796 0.89790808236 1e-09 0.10392386423 0.32105160472 1e-09 0.10443392414 0.95023901662 1e-09 
0.10547275206 0.19649582187 1e-09 0.10593786089 0.37348823931 1e-09 0.10609962514 0.52023828016 1e-09 
0.10609962544 0.75976171958 1e-09 0.10616901581 0.071819393844 1e-09 0.10726135374 0.24915713853 1e-09 
0.10733863461 0.50078956163 1e-09 0.10778221172 0.42556573487 1e-09 0.10793086806 0.8278711641 1e-09 
0.10793606578 0.12462185847 1e-09 0.1085057722 0.87899428153 1e-09 0.10929508578 0.30196025206 1e-09 
0.10937886123 0.017019389561 1e-09 0.1095369541 0.983215923 1e-09 0.10972581444 0.48061754308 1e-09 
0.11000815674 0.93145603533 1e-09 0.11060121485 0.77983597605 1e-09 0.11076170299 0.1777698572 1e-09 
0.11156223049 0.35478533284 1e-09 0.11177442836 0.79949607168 1e-09 0.11204541861 0.052800598872 1e-09 
0.11302967266 0.23026081864 1e-09 0.11369441318 0.40670693236 1e-09 0.1138563628 0.10553945364 1e-09 
0.11454650016 0.81399304704 1e-09 0.1146169506 0.86003850976 1e-09 0.11492627986 0.2828347416 1e-09 
0.11499707944 0.46014964593 1e-09 0.11593965375 0.15848533371 1e-09 0.11595112337 0.91251609171 1e-09 
0.11705186971 0.33561733467 1e-09 0.11786369303 0.9656343465 1e-09 0.11885786062 0.21124738547 1e-09 
0.119205565 0.38799877723 1e-09 0.11969385067 0.033797599671 1e-09 0.1197547929 0.086477118967 1e-09 
0.11976171957 0.53390037455 1e-09 0.11976171977 0.74609962522 1e-09 0.11999999941 0 1e-09 
0.11999999999 0.9999999989 1e-09 0.12078894063 0.26380061384 1e-09 0.12108422097 0.84151026304 1e-09 
[...]
POINT_DATA 2386
FIELD FieldData 3
Displacement1_Sorted 3 2386 double
1.5550613274e-12 2.2176232222e-12 -3.1409961381e-13 3.1369505997e-05 4.176946865e-05 -2.7410612215e-13 5.7359122034e-05 6.179533156e-05 -3.2885844367e-13 
7.8796486456e-05 7.6138007517e-05 -2.5142710722e-13 9.738613379e-05 8.8454309731e-05 -2.2320471988e-13 0.00012508964096 0.00010308617557 -1.4905710909e-13 
0.00013446525369 0.00010715298765 -1.1321822775e-13 0.00014055164304 0.00010841981826 -6.9354189724e-14 0.00014332825099 0.0001086823925 -4.3613634445e-14 
0.00014274891455 0.00010600188111 -1.3144745166e-14 0.00013799511496 0.00010232344939 1.595023179e-14 0.00012929895069 9.6357571696e-05 4.1815168246e-14 
0.00011650448259 8.9954994203e-05 5.7226576756e-14 9.9117841399e-05 8.063164047e-05 9.4370452953e-14 7.6813609201e-05 7.0426658431e-05 1.0461803797e-13 
4.9301580881e-05 5.8762853685e-05 1.2378573627e-13 1.6178219233e-05 4.6468067352e-05 1.5239161183e-13 -6.6709076154e-05 2.068500494e-05 2.2692494365e-13 
-0.00011673416754 9.2483817363e-06 1.6450233221e-13 -0.0001716958406 -1.8910820242e-06 2.6654123024e-13 -0.00029070266663 -1.2915126542e-05 3.0609472798e-13 
-0.00034876097527 -1.2470322543e-05 2.5081773816e-13 -0.0041320275768 0.007978416747 1.4813936626e-13 -0.0041085906289 0.0079778527371 1.4813936626e-13 
-0.0040866237177 0.0079758564961 1.760517823e-13 -0.0040678670947 0.0079745273996 1.2574459779e-13 -0.0040531656348 0.0079738179211 6.7190151834e-14 
-0.0040416358233 0.00797501747 6.7190151834e-14 -0.0040332908371 0.0079772441873 4.0238656231e-14 -0.004027499662 0.007980998744 2.3391288383e-14 
-0.0040214951346 0.0079929202187 -4.1759005726e-14 -0.0040208024102 0.008 -7.3424315808e-14 -0.0040236940093 0.0079867963905 -9.4374272437e-14 
0.0001128421482 9.6415495882e-05 -2.6701282092e-13 -2.2317714723e-05 3.4098218382e-05 1.1611729119e-13 -0.0002307097146 -8.5933192099e-06 2.3680556011e-13 
-0.0040957075067 0.0079637367882 -2.7345647245e-14 0.00010269586373 8.4034378711e-05 -2.2320471988e-13 6.5510472515e-05 5.7806621624e-05 -3.2885844367e-13 
-9.1586981791e-05 4.8078704358e-05 1.4468984067e-13 -0.00030973525623 2.7067695272e-05 2.2770870154e-13 1.8791109093e-05 1.9853136951e-05 -2.7410612215e-13 
-0.0040234829933 0.0079938030621 -1.4773022605e-13 -0.0040274494476 0.0079803799598 -1.1711239524e-13 -0.0040247103761 0.0079876526079 -9.4374272437e-14 
-0.004112675844 0.0079599101609 -2.7345647245e-14 0.00010884740677 0.00010013461832 -2.9272279693e-15 0.00013647783663 0.00010413787128 -1.8838787697e-13 
-0.0040395827192 0.0079675009579 -5.743031592e-14 0.00014055477418 0.00010966124337 -5.3004683861e-14 -0.00026073647059 3.6421469571e-05 2.3680556011e-13 
0.00013397951978 0.00010809806785 1.595023179e-14 8.9241820447e-05 9.537461851e-05 4.3899202709e-14 8.4632656159e-05 6.9836193191e-05 -3.4488781036e-13 
-0.0040615958039 0.0079606120858 -2.1591487736e-14 3.4515995615e-05 8.2033205926e-05 7.9186712712e-14 0.00012361942231 0.000105511863 -5.0998043857e-14 
0.00014115778225 0.000107673622 -1.2540279967e-13 -0.0040779323492 0.0079590203307 1.4007875075e-14 6.5018770998e-05 8.9776670685e-05 6.2656268435e-14 
-2.0045206196e-06 7.3826788808e-05 1.0230946068e-13 -0.0040494453205 0.0079628276128 -7.003319574e-15 0.00014275407812 0.0001092817224 -1.3131676676e-13 
-0.0040323840841 0.0079726822432 -9.6861295213e-14 0.00012795696086 9.8326846291e-05 -1.4905710909e-13 -0.00020285914317 4.4637807004e-05 2.3680556011e-13 
4.2335037578e-05 3.7905472805e-05 -5.1022384153e-13 -4.8026637158e-05 6.7220927383e-05 1.1611729119e-13 -0.00035152076421 4.0647562099e-05 1.8457535034e-13 
-0.0041341317951 0.0079568821429 -2.8720133855e-14 0.00011497927984 8.9738992658e-05 -2.6701282092e-13 -0.00013899967317 5.623205192e-05 1.4468984067e-13 
-2.8295427119e-48 0 -2.7064283482e-13 -0.0040239141881 0.008 -1.1981511686e-13 -0.0040689035636 0.0079484832249 -2.1591487736e-14 
9.9758760786e-05 0.00011271732276 -4.2552802018e-14 9.8748435516e-05 7.5346558437e-05 -3.4488781036e-13 -9.0112293672e-05 8.6066085533e-05 6.1458053722e-14 
-0.0040278490844 0.0079820602966 -1.4595854314e-13 -0.0040949608011 0.0079453582207 -2.7345647245e-14 0.00013808260718 0.00010630327192 -1.8719418139e-13 
6.2969588732e-05 4.9480227878e-05 -3.5887819934e-13 -0.0040385396533 0.0079623443644 -1.3815942925e-13 2.0083056129e-05 1.7074899217e-05 -5.1022384153e-13 
-0.004026545762 0.0079904982084 -1.8547000941e-13 -0.00030502932636 7.256302007e-05 2.9224869205e-13 -0.00023705375006 8.019484901e-05 1.4870711042e-13 
-0.004030765916 0.0079740850323 -1.1711239524e-13 -0.0040462746408 0.0079546883249 -5.743031592e-14 -0.0040796399514 0.007943004871 1.4007875075e-14 
0.00013223881147 0.00010102971848 -3.0688203833e-13 1.8353296295e-05 0.00010819916358 2.6984810706e-15 5.0957862932e-05 0.00011275825859 -4.9920403225e-14 
-0.0041173239954 0.0079390050141 -2.7345647245e-14 0.00013751819711 0.00011827640485 -5.3004683861e-14 -1.9917328914e-05 0.00010527725078 2.0178361971e-14 
0.00012954799005 0.00011953447816 -5.0998043857e-14 0.00014106570022 0.00011595189911 -1.37832328e-13 0.00011538607066 0.00012026487182 -2.9272279693e-15 
-0.0040581985105 0.0079461406192 -9.2329956724e-14 0.00012200811928 9.2182490492e-05 -3.3513495781e-13 7.9524480793e-05 0.00011895986271 6.0604158511e-15 
-5.3799683539e-05 0.00010497185473 1.1611729119e-13 0.00014112316703 0.00011203205897 -1.8719418139e-13 -0.00018234316096 9.4234342209e-05 8.8522218789e-14 
-0.0041415500649 0.0079343850304 -9.0569815907e-14 -0.00036751483555 8.8427998341e-05 2.1288449417e-13 7.880221578e-05 5.8632611132e-05 -3.5887819934e-13 
-0.0040358641136 0.007963538115 -1.3815942925e-13 4.5189200549e-48 6.1481133583e-72 -3.188024033e-13 -0.0040277560245 0.008 -1.1981511686e-13 
4.0509214468e-05 3.07218943e-05 -5.1022384153e-13 0.00010883939111 8.1585338196e-05 -4.3178506611e-13 -0.00012828491605 0.00011313703838 1.4468984067e-13 
-0.0040716962907 0.0079337383532 -1.0098026948e-13 9.9273642028e-05 0.00013167632111 -4.2552802018e-14 -0.0040430512311 0.007951318604 -5.743031592e-14 
1.314881745e-06 0.00012948725559 2.6984810706e-15 -0.0040310207316 0.0079791605105 -1.4595854314e-13 -0.00027211395534 0.00011253499076 1.4870711042e-13 
0.00013585109947 0.00010708793937 -1.8719418139e-13 -0.004086543897 0.0079266565989 -1.0098026948e-13 9.3158378095e-05 6.8640985744e-05 -3.4079860295e-13 
-0.0041034377778 0.0079225057079 -1.768390791e-13 -8.0853185348e-05 0.00013084696176 6.1458053722e-14 3.1861972201e-05 0.00013681221062 2.6984810706e-15 
5.7145536181e-05 4.1410386959e-05 -3.5887819934e-13 -0.0040306430818 0.0079894105261 -1.8547000941e-13 1.945172266e-05 1.4329564269e-05 -5.1022384153e-13 
-0.0002249366616 0.00012601114516 1.0065800012e-13 0.00013887051435 0.00012651614291 -1.975882561e-13 -0.0040525040313 0.0079391295148 -1.6174807287e-13 
0.00012807710731 9.9250232972e-05 -2.3204111836e-13 0.00013310860007 0.00013147606361 -1.0877787458e-13 -0.0041273765854 0.0079161193931 -1.768390791e-13 
-0.0040355484532 0.007965666816 -2.1243804174e-13 0.00012360094537 0.00013684355734 -1.1537283817e-13 0.00011204998404 0.00013904825297 -4.2552802018e-14 
-3.2400878858e-05 0.00014204802754 -4.5491740376e-14 5.9452495252e-05 0.00014379738708 -4.9920403225e-14 0.00014051723582 0.00012192401131 -1.9043557447e-13 
-0.00032809684172 0.00013051555528 2.1288449417e-13 0.00011705142877 8.9086373014e-05 -3.3513495781e-13 -0.00016796408701 0.00014431447715 8.8522218789e-14 
-0.0040637746429 0.0079259380141 -9.2329956724e-14 7.3755711559e-05 5.3402234775e-05 -3.4079860295e-13 -0.0041547719751 0.0079080661186 -2.9201373443e-13 
-0.00039598764621 0.00013375756957 1.7226565599e-13 -0.0040413137536 0.0079514797757 -1.3815942925e-13 8.3196425142e-05 0.00015078941182 -1.1602590904e-13 
0.00013786344779 0.00011657994016 -1.8719418139e-13 0 7.377676413e-55 -3.5458012462e-13 -0.0040329358544 0.008 -1.6394299782e-13 
-0.0040343076984 0.0079811685394 -3.0269071178e-13 5.6516620355e-06 0.00016018652949 -4.5491740376e-14 0.00010295727539 7.6846113497e-05 -3.3513495781e-13 
-0.00011540490667 0.00016137828454 5.7982194625e-15 3.8336787874e-05 2.7171984218e-05 -3.5887819934e-13 -0.0041144416993 0.0079012066525 -1.768390791e-13 
-0.0040779584464 0.0079122618341 -2.3576586443e-13 -0.00026914962273 0.00015678518634 6.2051938591e-14 0.00010169591429 0.00015464184866 -1.4076173216e-13 
-0.0040489502768 0.007936906557 -1.3398150319e-13 0.00013512756469 0.0001391941939 -1.0877787458e-13 0.00013230350594 0.00010939523772 -2.8537839342e-13 
5.5501339454e-05 3.9673809949e-05 -4.0258423121e-13 -0.0040371463538 0.0079692792159 -1.8083445728e-13 3.7774502368e-05 0.00016855576095 -1.2326791326e-13 
-0.0040964336497 0.0078996323658 -2.0712648109e-13 8.6438934568e-05 6.3688476033e-05 -3.4079860295e-13 0.00013831366161 0.0001351960419 -1.975882561e-13 
-6.7564213402e-05 0.00017567499262 -4.6107202854e-15 0.00011627786361 0.00015641276757 -1.1537283817e-13 -0.00021127847678 0.00017787589122 1.0065800012e-13 
-0.0040587436154 0.0079206718539 -1.9305380921e-13 0.00012352619576 0.00010005599773 -2.3204111836e-13 1.821360347e-05 1.2854511182e-05 -4.030748725e-13 
-0.0040363562781 0.0079877444093 -1.8700269689e-13 0.00012859277827 0.00015203989054 -1.3966752695e-13 -0.0040417254229 0.007954520687 -1.8083445728e-13 
6.4642170748e-05 0.00017435892305 -1.1756493318e-13 -0.0041358401908 0.0078813162721 -5.7034605717e-13 0.00013810323302 0.00013013849771 -1.9043557447e-13 
6.7464216688e-05 4.891078148e-05 -4.0258423121e-13 -2.4700968858e-05 0.00018698991929 -4.5491740376e-14 -0.00036830064111 0.00018288487675 1.7384564645e-13 
-0.00044333498035 0.00017879171774 1.7226565599e-13 -0.004171431955 0.0078750828205 -4.1099725297e-13 -0.00031008079332 0.00018784326779 6.2051938591e-14 
0.000111579352 8.7985898738e-05 -2.5482430226e-13 -0.00015433569206 0.0001947213079 5.7982194625e-15 -0.0040706691137 0.0079035641195 -2.3576586443e-13 
-0.0041148366373 0.0078793374029 -5.7034605717e-13 8.6524797975e-05 0.00017708962499 -1.4076173216e-13 -0.0040481403529 0.0079373712137 -2.1526167096e-13 
-0.0040403059853 0.0079755826883 -2.5200114144e-13 4.8460384059e-05 3.4650804349e-05 -3.595609062e-13 0.00013438277491 0.00012261541793 -2.8537839342e-13 
1.1992183437e-05 0.00019567829049 -1.2326791326e-13 3.1473624217e-05 2.2400392005e-05 -3.595609062e-13 1.6723623521e-48 0 -4.0339487732e-13 
-0.0040394178915 0.007999999999 -1.8700269689e-13 0.00013378692778 0.00015198891867 -1.3966752695e-13 9.6942606725e-05 7.5268739675e-05 -2.5482430226e-13 
-0.00010274116643 0.00020924863456 -7.9465160394e-14 -0.0040854475217 0.0078852366817 -2.0712648109e-13 0.00010495332263 0.00017797025452 -1.4076173216e-13 
-0.0002588558012 0.00021405086018 6.2051938591e-14 -0.0040562740099 0.0079187284856 -2.1526167096e-13 0.00012798565708 0.0001135019927 -2.3204111836e-13 
4.2970477637e-05 0.00020189728401 -1.1756493318e-13 -0.0040446528909 0.007959536762 -2.5200114144e-13 0.00013611576517 0.00014666088989 -1.975882561e-13 
7.9965167042e-05 6.1171318637e-05 -4.8969160873e-13 -5.609556867e-05 0.00022087368594 -1.0249574398e-13 -0.0041035310229 0.0078653055621 -4.2061477761e-13 
0.00011785010076 0.00017650664895 -1.6338290364e-13 -0.00019707835936 0.00023230695484 -1.7415535844e-14 0.00011826228324 0.00010187540259 -2.3204111836e-13 
-0.0040663682708 0.0078994031271 -2.2943463366e-13 1.7856027536e-05 1.2745960244e-05 -4.030748725e-13 -0.0040438437926 0.0079848766696 -2.4544193938e-13 
6.8459311785e-05 0.00020389681226 -1.1756493318e-13 -0.0040496957991 0.0079415151773 -2.9582662529e-13 -0.00050727665544 0.00022787152383 7.3437039302e-14 
-0.0041892305568 0.0078355706018 -1.0697532744e-12 -0.0004175315555 0.00023824483011 -5.4969596084e-15 0.00013496605908 0.00013907927688 -1.9043557447e-13 
-0.0041570331889 0.0078373957331 -1.0697532744e-12 6.141048419e-05 4.6250258187e-05 -4.8969160873e-13 -1.6102019351e-05 0.00022798141294 -1.2326791326e-13 
-0.00032509745002 0.00024535205456 -1.5307899012e-15 0.00012709514427 0.00017261041626 -2.8479150885e-13 0.00010587683551 8.8905543031e-05 -2.5482430226e-13 
-0.00014179006294 0.00024646419955 -1.0243988914e-13 -0.004126626183 0.0078418483667 -7.0979268809e-13 -0.0040786599876 0.007877578347 -2.2943463366e-13 
8.9692516689e-05 0.00020334635967 -1.4076173216e-13 -0.0040566341999 0.0079209311755 -2.1526167096e-13 0.00013067549863 0.00012957814913 -2.3833109863e-13 
3.8839807047e-05 2.87360241e-05 -3.595609062e-13 1.8322487945e-05 0.00023238820148 -1.2326791326e-13 -0.0040487235612 0.0079686111666 -2.7383467689e-13 
0.0001320741205 0.00016658185677 -2.3326027321e-13 -0.0040479415873 0.0079999999987 -2.4544193938e-13 1.1859379716e-12 8.5862962113e-13 -4.7963545231e-13 
-9.1726292588e-05 0.00025726721784 -1.7604760516e-13 9.0917291528e-05 7.4945576665e-05 -4.3024134179e-13 -0.0040942474521 0.0078545632501 -4.2061477761e-13 
0.00010637344866 0.00020080814052 -2.5281336557e-13 -0.0002449900725 0.00027447924948 -1.7415535844e-14 0.00012309860497 0.00011801950135 -3.2824053144e-13 
-0.0040653179012 0.0078988252747 -2.2943463366e-13 4.770643823e-05 0.00023423507241 -2.294390467e-13 -0.0040536048862 0.0079488847284 -2.9582662529e-13 
0.00013310818019 0.00015838791916 -2.3326027321e-13 -4.7607056862e-05 0.00026410158074 -1.0249574398e-13 -0.00060143914158 0.00027703301081 8.9389512447e-15 
-0.0042072807013 0.0077906578958 -1.6297438591e-12 7.4164436629e-05 6.0034809717e-05 -3.7638381656e-13 0.0001179553315 0.00019644294848 -4.1019720579e-13 
-0.00048532705501 0.00029329645316 -5.4969596084e-15 -0.00018483724917 0.00028909817353 -1.5688071917e-13 -0.0041121057077 0.0078291800725 0 
0.00011277514262 0.00010477574012 -3.2824053144e-13 -0.0040762227533 0.007875035868 -2.2943463366e-13 7.2109509935e-05 0.00023244898104 -2.294390467e-13 
1.8937934729e-05 1.4260791963e-05 -4.2526760583e-13 -0.0040531333765 0.0079820290793 -2.7397092892e-13 -0.00038659385952 0.00030647478062 -1.6060016112e-13 
-0.0040595980872 0.0079267377516 -3.5477824139e-13 -0.0041746945747 0.0077864470934 -2.7619211036e-12 0.00013141475174 0.00014826227431 -2.7542483387e-13 
-9.5547681583e-06 0.00026760356022 -2.5929029618e-13 -0.0041456576434 0.0077962622256 -1.6546449507e-12 5.5912213294e-05 4.4737702446e-05 -4.2526760583e-13 
0.00012607415289 0.00018981861287 -2.8479150885e-13 -0.00013035294794 0.00029828192879 -1.0243988914e-13 9.9763251658e-05 9.0670807352e-05 -4.3024134179e-13 
-0.0041284394682 0.0078034796973 -1.0306013076e-12 -0.0040892478889 0.0078486299503 -6.803930554e-13 9.1650471505e-05 0.00022898669632 -3.2222099185e-13 
-0.00030313881728 0.00032371063631 -2.3946127436e-13 0.00012592670657 0.00013658367372 -4.2509530323e-13 -0.0040666099068 0.0079021705046 -2.1526167096e-13 
2.4097344956e-05 0.00026766395672 -2.2669460024e-13 -0.0040589743084 0.0079613132888 -4.3158371706e-13 0.00012946133325 0.00018083177008 -2.8479150885e-13 
-8.2649218694e-05 0.00030384174184 -1.7604760516e-13 3.6500021177e-05 2.9143880905e-05 -4.2526760583e-13 8.4970084524e-05 7.5556583014e-05 -3.2658335637e-13 
-0.00072431470747 0.00034010470527 -3.4010089599e-13 -0.0041924965295 0.0077106039933 -2.8950874155e-12 9.1374893058e-48 0 -3.7123672683e-13 
-0.0040584895671 0.0079999999987 -2.7397092892e-13 0.00010655775045 0.00022357624387 -2.5281336557e-13 -0.0041044643264 0.0078200614059 -7.2624594056e-13 
-0.00023101809036 0.00033761736982 -1.5688071917e-13 0.00011772576827 0.00012300632336 -4.7716512646e-13 -0.0040759427286 0.0078765514029 -3.6349125173e-13 
5.1582264666e-05 0.00026460280868 -2.2669460024e-13 -0.0040643306342 0.0079363762231 -3.5898682962e-13 0.00012987489819 0.00017033459614 -4.2804559945e-13 
-0.00044347879787 0.00037379286889 -1.6060016112e-13 -0.00058753009581 0.00038031369643 -3.6749681464e-13 -4.0071214209e-05 0.00030599542457 -2.7045024579e-13 
6.8606032328e-05 5.9826975626e-05 -3.7638381656e-13 0.00011691979716 0.00021600267093 -4.1019720579e-13 -0.0001722000724 0.00034600496104 -2.1340288384e-13 
-0.0041225975107 0.0077889015439 -1.6439152557e-12 0.00010680572524 0.0001084648249 -3.2658335637e-13 -0.0040874265427 0.0078486164958 -6.803930554e-13 
7.419108875e-05 0.00025989229418 -4.3224935282e-13 -0.0041969855543 0.0077114001897 -2.8950874155e-12 -0.004160505057 0.0077466715267 -2.2353884152e-12 
-0.00036280272952 0.00038724882774 -3.4255720937e-13 -0.004071044418 0.0079106320603 -3.5477824139e-13 -0.0040647005895 0.0079783584215 -2.7397092892e-13 
1.8686899334e-05 1.5043746327e-05 -5.1110734263e-13 0.00012679461419 0.00015760078298 -4.2509530323e-13 -3.6042066389e-06 0.00030432829744 -2.5929029618e-13 
-0.0041400952894 0.0077600447776 -1.0306013076e-12 -0.00088228036995 0.00042370278199 -7.886988097e-13 -0.0040632399876 0.0075457115168 -9.2320266286e-12 
5.1049376842e-05 4.4285523689e-05 -4.4778481036e-13 0.00012375493305 0.00020617566976 -2.7078612569e-13 -0.00012131417921 0.00034847231493 -3.7408693934e-13 
9.3808946513e-05 9.2873444968e-05 -3.2658335637e-13 9.2417257135e-05 0.00025405839501 -2.6977572296e-13 -0.0041000145297 0.0078176566257 -8.1640196075e-13 
-0.00028460206488 0.00039566697957 -3.4255720937e-13 0.00012057672826 0.00014356279028 -4.2509530323e-13 -0.0040788302791 0.0078831403446 -5.0539809324e-13 
2.7975943007e-05 0.00030026906491 -3.8027474541e-13 0.00012638639754 0.00019444198528 -3.7217698507e-13 -0.00073624404831 0.00047926702457 -1.3573533268e-12 
-7.4154429696e-05 0.00034844664885 -2.7045024579e-13 -0.00051912077902 0.00045562446824 -8.5011866965e-13 3.2608868763e-05 2.8101026127e-05 -4.4778481036e-13 
7.9215626871e-05 7.6589954235e-05 -5.0059406117e-13 -0.0040723639311 0.0079525293148 -4.3158371706e-13 -0.0040709612693 0.008 -2.4291169441e-13 
7.0014954423e-48 0 -3.8748832956e-13 0.00010582920058 0.00024497387803 -3.7745694293e-13 -0.00022083713515 0.00039985189581 -3.0921357614e-13 
-0.0041169711604 0.0077830506077 -8.1640196075e-13 -0.0041878261205 0.0075771441067 -6.7582555627e-12 0.00011203343879 0.00012846387301 -3.7894147489e-13 
-0.0040884125612 0.0078533785467 -4.679019318e-13 -0.0036508463797 0.0071582278071 -1.4493674544e-11 -0.0011003936747 0.0005428138659 -4.486000994e-12 
5.4341893076e-05 0.00029451592212 -4.3224935282e-13 -0.00042703351399 0.00046197481439 -8.5011866965e-13 -0.0041801962921 0.0076757987603 -2.7485143136e-12 
-0.0040769396187 0.0079224985146 -3.5898682962e-13 0.00012571981038 0.00018108581974 -3.7217698507e-13 -3.3619843879e-05 0.00034515173832 -2.7045024579e-13 
6.2912391945e-05 5.9636975202e-05 -4.4778481036e-13 1.5609642387e-05 1.364764649e-05 -5.1110734263e-13 0.00011481381158 0.0002343810188 -3.7745694293e-13 
-0.00016425069267 0.00039955499647 -4.726605612e-13 -0.0041353847644 0.0077408197304 -1.8567395885e-12 0.00010078659638 0.00011244687014 -3.7894147489e-13 
-0.0041001884113 0.0078206008636 -6.803930554e-13 -0.00034660466132 0.00046227053307 -3.4255720937e-13 7.5388889046e-05 0.00028685948249 -4.3224935282e-13 
-0.0040840468127 0.0078935397681 -5.1013957192e-13 0.0001218602834 0.00016628941192 -4.153960018e-13 -0.0042097676557 0.007597877103 -6.7582555627e-12 
-0.0041636119429 0.0076959822367 -2.7485143136e-12 1.1794411096e-06 0.00033975068126 -3.6145765268e-13 -0.00063197514467 0.00055293919484 -2.3045585216e-12 
-0.004077802879 0.0079765172032 -4.1099791281e-13 -0.0031415575729 0.006490350474 -1.9506481662e-11 -0.0013611707127 0.00076157504837 -4.1153012801e-12 
4.5550082134e-05 4.2806603868e-05 -4.4778481036e-13 -0.00075691498501 0.00059802224533 -3.322474579e-12 0.00012089998845 0.00022131570104 -5.7256083487e-13 
-0.00089537188032 0.00062793788575 -1.8279685762e-12 -0.00011285504556 0.00039674525394 -3.7408693934e-13 8.7940728383e-05 9.5392819681e-05 -4.5575378866e-13 
-0.00027516275549 0.0004616435926 -6.616421295e-13 -0.0041142949247 0.0077827346886 -8.1640196075e-13 9.1984416821e-05 0.00027714263479 -4.3224935282e-13 
0.00011495593394 0.00015060116543 -4.153960018e-13 -0.0040921709275 0.0078626624687 -4.679019318e-13 -0.0041062118993 0.0072570444694 -1.4493674544e-11 